CRYSTAL
PRIMVEC
   0.000000000   1.785000000   1.785000000
   1.785000000   0.000000000   1.785000000
   1.785000000   1.785000000   0.000000000
PRIMCOORD
2 1
5   0.000000000   0.000000000   0.000000000
7   0.892500000   0.892500000   0.892500000
